BEGIN_CFG
 Size
    84
 Supercell
        11.601720      0.000000      0.000000
         0.000000      8.809830      0.000000
         0.000000      0.000000     10.766565
 AtomData:  id type       cartes_x      cartes_y      cartes_z           fx          fy          fz
             1    0       1.726100      1.723640      0.000000    -0.000801    0.280157    0.404889
             2    0       4.074760      7.086190      1.794430     0.000624   -0.280175    0.407605
             3    0       7.526960      7.086190      1.794430    -0.001101   -0.279352    0.407422
             4    0       9.875620      1.723640      0.000000     0.000342    0.281100    0.405292
             5    0       1.726100      1.723640      3.588860    -0.000834    0.280138    0.404884
             6    0       4.074760      7.086190      5.383280     0.000634   -0.280153    0.407610
             7    0       7.526960      7.086190      5.383280    -0.001086   -0.279302    0.407418
             8    0       9.875620      1.723640      3.588860     0.000345    0.281141    0.405289
             9    0       1.726100      1.723640      7.177710    -0.000822    0.280160    0.404895
            10    0       4.074760      7.086190      8.972140     0.000624   -0.280131    0.407621
            11    0       7.526960      7.086190      8.972140    -0.001109   -0.279310    0.407411
            12    0       9.875620      1.723640      7.177710     0.000338    0.281164    0.405289
            13    0       1.726100      6.128560      0.000000    -0.000805    0.280178    0.404907
            14    0       4.074760      2.681270      1.794430     0.000624   -0.280160    0.407614
            15    0       7.526960      2.681270      1.794430    -0.001115   -0.279326    0.407411
            16    0       9.875620      6.128560      0.000000     0.000329    0.281184    0.405295
            17    0       1.726100      6.128560      3.588860    -0.000807    0.280129    0.404900
            18    0       4.074760      2.681270      5.383280     0.000613   -0.280144    0.407615
            19    0       7.526960      2.681270      5.383280    -0.001131   -0.279323    0.407414
            20    0       9.875620      6.128560      3.588860     0.000360    0.281189    0.405282
            21    0       1.726100      6.128560      7.177710    -0.000796    0.280067    0.404884
            22    0       4.074760      2.681270      8.972140     0.000636   -0.280155    0.407612
            23    0       7.526960      2.681270      8.972140    -0.001103   -0.279321    0.407421
            24    0       9.875620      6.128560      7.177710     0.000337    0.281148    0.405289
            25    1       1.690370      0.133470      0.105870     0.027384   -0.229577   -0.346653
            26    1       4.110490      8.676360      1.900300    -0.027737    0.230158   -0.344085
            27    1       7.491230      8.676360      1.900300     0.027227    0.229324   -0.342389
            28    1       9.911350      0.133470      0.105870    -0.027646   -0.230717   -0.341431
            29    1       1.690370      0.133470      3.694730     0.027386   -0.229553   -0.346651
            30    1       4.110490      8.676360      5.489150    -0.027733    0.230137   -0.344089
            31    1       7.491230      8.676360      5.489150     0.027228    0.229336   -0.342391
            32    1       9.911350      0.133470      3.694730    -0.027648   -0.230703   -0.341428
            33    1       1.690370      0.133470      7.283580     0.027387   -0.229568   -0.346648
            34    1       4.110490      8.676360      9.078010    -0.027738    0.230173   -0.344084
            35    1       7.491230      8.676360      9.078010     0.027225    0.229363   -0.342387
            36    1       9.911350      0.133470      7.283580    -0.027647   -0.230784   -0.341425
            37    1       1.690370      4.538380      0.105870     0.027384   -0.229582   -0.346654
            38    1       4.110490      4.271450      1.900300    -0.027739    0.230176   -0.344082
            39    1       7.491230      4.271450      1.900300     0.027229    0.229338   -0.342395
            40    1       9.911350      4.538380      0.105870    -0.027640   -0.230699   -0.341435
            41    1       1.690370      4.538380      3.694730     0.027386   -0.229562   -0.346653
            42    1       4.110490      4.271450      5.489150    -0.027741    0.230146   -0.344088
            43    1       7.491230      4.271450      5.489150     0.027229    0.229349   -0.342393
            44    1       9.911350      4.538380      3.694730    -0.027641   -0.230711   -0.341435
            45    1       1.690370      4.538380      7.283580     0.027385   -0.229509   -0.346657
            46    1       4.110490      4.271450      9.078010    -0.027736    0.230123   -0.344087
            47    1       7.491230      4.271450      9.078010     0.027227    0.229297   -0.342392
            48    1       9.911350      4.538380      7.283580    -0.027639   -0.230736   -0.341430
            49    1       3.702110      2.214350      0.017590    -0.166729    0.051620   -0.073744
            50    1       2.098750      6.595480      1.812010     0.165748   -0.052465   -0.075637
            51    1       9.502970      6.595480      1.812010    -0.166742   -0.052391   -0.074192
            52    1       7.899610      2.214350      0.017590     0.165638    0.051831   -0.074971
            53    1       3.702110      2.214350      3.606440    -0.166731    0.051630   -0.073733
            54    1       2.098750      6.595480      5.400870     0.165744   -0.052473   -0.075621
            55    1       9.502970      6.595480      5.400870    -0.166740   -0.052383   -0.074188
            56    1       7.899610      2.214350      3.606440     0.165640    0.051823   -0.074971
            57    1       3.702110      2.214350      7.195300    -0.166731    0.051624   -0.073730
            58    1       2.098750      6.595480      8.989720     0.165742   -0.052463   -0.075651
            59    1       9.502970      6.595480      8.989720    -0.166740   -0.052388   -0.074177
            60    1       7.899610      2.214350      7.195300     0.165630    0.051828   -0.074949
            61    1       3.702110      6.619270      0.017590    -0.166730    0.051622   -0.073737
            62    1       2.098750      2.190560      1.812010     0.165747   -0.052461   -0.075637
            63    1       9.502970      2.190560      1.812010    -0.166741   -0.052390   -0.074187
            64    1       7.899610      6.619270      0.017590     0.165640    0.051833   -0.074960
            65    1       3.702110      6.619270      3.606440    -0.166728    0.051616   -0.073733
            66    1       2.098750      2.190560      5.400870     0.165750   -0.052461   -0.075633
            67    1       9.502970      2.190560      5.400870    -0.166742   -0.052391   -0.074202
            68    1       7.899610      6.619270      3.606440     0.165636    0.051839   -0.074972
            69    1       3.702110      6.619270      7.195300    -0.166740    0.051614   -0.073738
            70    1       2.098750      2.190560      8.989720     0.165753   -0.052461   -0.075638
            71    1       9.502970      2.190560      8.989720    -0.166748   -0.052383   -0.074173
            72    1       7.899610      6.619270      7.195300     0.165633    0.051837   -0.074963
            73    1       0.000000      2.200260      0.008970    -0.001090   -0.098024   -0.030530
            74    1       5.800860      6.609570      1.803400    -0.001023    0.098027   -0.029360
            75    1       0.000000      2.200260      3.597830    -0.001084   -0.098031   -0.030529
            76    1       5.800860      6.609570      5.392250    -0.001037    0.098027   -0.029360
            77    1       0.000000      2.200260      7.186680    -0.001063   -0.098022   -0.030525
            78    1       5.800860      6.609570      8.981110    -0.001028    0.098030   -0.029359
            79    1       0.000000      6.605170      0.008970    -0.001102   -0.098031   -0.030533
            80    1       5.800860      2.204660      1.803400    -0.001022    0.098024   -0.029363
            81    1       0.000000      6.605170      3.597830    -0.001093   -0.098038   -0.030532
            82    1       5.800860      2.204660      5.392250    -0.001038    0.098025   -0.029360
            83    1       0.000000      6.605170      7.186680    -0.001062   -0.098025   -0.030531
            84    1       5.800860      2.204660      8.981110    -0.001030    0.098025   -0.029360
 Energy
       -971.712251830000
 PlusStress:  xx          yy          zz          yz          xz          xy
       -62.57443   -44.71422   -60.50153    -0.05474    -0.02423     0.00006
 Feature   EFS_by	VASP
END_CFG

BEGIN_CFG
 Size
    84
 Supercell
        11.601720      0.000000      0.000000
         0.000000      8.809830      0.000000
         0.000000      0.000000     10.766565
 AtomData:  id type       cartes_x      cartes_y      cartes_z           fx          fy          fz
             1    0       1.725290      1.709650      0.075870     0.955909    2.621828   -0.859530
             2    0       3.984890      7.141620      1.806780     2.823915    0.394326   -0.605334
             3    0       7.503340      7.088920      1.786380    -1.849174   -2.932943    1.102187
             4    0       9.835960      1.670300      0.029410     1.431955    0.147931   -1.012023
             5    0       1.651580      1.727620      3.611150     3.187360   -3.468228    0.604442
             6    0       4.032940      7.117990      5.336090    -0.926773    0.102341    0.225025
             7    0       7.471840      7.120200      5.386750     2.004054   -1.921604    0.627994
             8    0       9.875040      1.720280      3.556020    -0.016257    2.815172    2.729580
             9    0       1.818700      1.728600      7.144390    -2.209775   -0.526635    2.910465
            10    0       3.997100      7.136650      8.994050     2.730427   -3.773821    0.577013
            11    0       7.575850      7.050490      8.966290    -1.854181   -0.416148    1.914441
            12    0       9.860220      1.729360      7.074970     2.973803   -4.224097    2.501106
            13    0       1.700290      6.163950      0.030340     1.468339   -0.070053    1.989129
            14    0       4.135560      2.657950      1.842430    -2.105749   -5.418513    0.092255
            15    0       7.476240      2.699660      1.788950    -1.140249    1.422180    0.626466
            16    0       9.904350      6.090640      0.045920    -1.605783    0.897181   -1.260068
            17    0       1.798050      6.147680      3.607200    -1.939781    2.451774    0.788174
            18    0       4.055100      2.716920      5.395070     3.115137   -0.516740   -0.493943
            19    0       7.667290      2.820860      5.356510    -2.651577   -3.759243    0.807676
            20    0       9.884840      6.020800      3.512540     0.096652    1.277645    2.706846
            21    0       1.716250      6.115110      7.265850    -1.383069    1.905340   -1.432608
            22    0       3.983890      2.751850      8.922930     1.312859    1.510463    2.166466
            23    0       7.578140      2.643920      9.033290     2.039052    0.285089   -2.002615
            24    0       9.883770      6.079800      7.212220    -0.098681   -0.098190   -0.995946
            25    1       1.671400      0.163280     10.755260     0.227102   -3.432817   -0.156622
            26    1       4.045320      8.730150      1.936610    -0.047673    0.522704   -0.412069
            27    1       7.552360      8.640970      1.920470    -0.031679    2.427107   -0.216983
            28    1      10.011350      0.083410      0.046780    -0.474337    0.350971    0.275519
            29    1       1.782100      0.076450      3.715350    -1.027050    2.058560   -0.483408
            30    1       3.997210      8.699840      5.526540    -0.059637    0.132374   -0.862227
            31    1       7.527480      8.671130      5.580210     0.125982    1.639441   -0.477859
            32    1       9.928790      0.177800      3.548920     0.200682   -3.132898    0.104663
            33    1       1.601140      0.174720      7.309550     0.598213   -2.062640    0.046418
            34    1       4.215130      8.662730      8.973100    -0.420119    3.322808    0.112444
            35    1       7.428690      8.615000      9.091100     0.570999    1.749453   -0.321329
            36    1      10.057370      8.807560      7.323190    -1.097732    5.533165   -1.489521
            37    1       1.769580      4.590390      0.190660    -0.167751   -0.910887   -0.550876
            38    1       4.011620      4.173520      1.838770     0.302900    4.881582    0.435252
            39    1       7.331790      4.355110      1.729890     0.595287   -3.187734    0.217233
            40    1       9.919790      4.513300      0.013550    -0.134946   -1.505647   -0.038025
            41    1       1.680210      4.607990      3.710440     0.091572   -3.170306   -0.516310
            42    1       4.131930      4.328550      5.564370    -0.255087   -0.735933   -0.846376
            43    1       7.570130      4.364240      5.355920    -0.272506    3.415526   -0.118354
            44    1      10.027680      4.460720      3.781830    -0.514007   -0.960770   -0.686408
            45    1       1.644850      4.556520      7.148170     0.231073   -1.801409    0.692407
            46    1       4.230960      4.362310      9.027430    -0.813780   -1.591948   -0.485540
            47    1       7.439560      4.214180      9.058780     1.004413    2.199991    0.220806
            48    1      10.001440      4.470450      7.387520    -0.455016    0.479244   -0.535810
            49    1       3.585180      2.359240      0.060090     1.098073   -0.432251   -1.659438
            50    1       2.195570      6.594690      1.813400    -2.560081    0.093892   -0.728634
            51    1       9.542980      6.521340      1.750570    -0.434968   -0.056704    1.727855
            52    1       7.891090      2.109380     10.755490     0.559066    0.169514    3.026810
            53    1       3.808000      2.079650      3.600340    -1.388100    1.324110    1.023952
            54    1       2.024090      6.426120      5.442900     0.653605    1.203097   -1.583427
            55    1       9.645360      6.649810      5.378490    -1.782256   -0.712358   -0.135149
            56    1       7.831270      2.106120      3.699000     0.083016    0.631261   -1.495249
            57    1       3.721420      2.295460      7.235620     0.627205   -0.152291   -0.646600
            58    1       2.023590      6.651160      9.094250     0.957441   -0.082498   -1.930996
            59    1       9.419000      6.626400      8.929070     2.058017   -0.738992    2.259620
            60    1       7.808340      2.261460      7.059930     2.157860   -0.409436    1.709410
            61    1       3.786230      6.601340      0.110590    -1.106677    0.389817   -3.153222
            62    1       2.150750      2.036360      1.842950    -0.324733    0.439782    0.777433
            63    1       9.357450      2.187960      2.001020     0.059568    0.724274   -4.723083
            64    1       8.000790      6.675960      0.106880    -0.263110   -0.267337   -1.828667
            65    1       3.668480      6.535300      3.449090     0.220881   -0.112005    4.436199
            66    1       2.084570      1.991050      5.475080     1.506407    1.658352   -4.185372
            67    1       9.536930      2.335710      5.358630     0.704923   -0.810848    0.139857
            68    1       7.771380      6.593760      3.661480     1.329146    0.115468   -0.982373
            69    1       3.595540      6.758070      7.085970     0.270779   -0.716036    2.637470
            70    1       2.091620      2.250070      8.909640     0.910484    0.528707    2.164954
            71    1       9.571970      2.075640      9.027560    -0.034015   -0.000387   -0.630539
            72    1       7.952330      6.663790      7.278950    -0.837639   -0.510551   -3.438243
            73    1       0.058030      2.130690      0.039750    -2.521434    0.601042    0.431609
            74    1       5.738160      6.597830      1.765280     1.306137    0.840500    0.169054
            75    1       0.029610      2.256320      3.551450    -1.084625   -0.209116   -0.002849
            76    1       5.732680      6.795150      5.245440     0.055124   -0.690084    0.472797
            77    1       0.130050      2.167210      7.083500    -3.826472    0.374350    0.029507
            78    1       5.812650      6.706300      9.090240    -1.899975   -0.710585   -0.549298
            79    1      11.601500      6.496260      0.022630    -0.124180    0.860445   -0.028900
            80    1       5.784220      2.069950      1.984010     2.436227    0.812943   -0.852249
            81    1      11.529300      6.520580      3.475830     1.531287    0.376703   -0.114489
            82    1       5.763520      2.148810      5.462750    -0.772185    1.647490   -0.403516
            83    1      11.548420      6.584060      7.069120     1.998795   -0.094838    0.933148
            84    1       6.013150      2.322450      8.947970    -6.259507   -1.832278    0.009343
 Energy
       -962.562155560000
 PlusStress:  xx          yy          zz          yz          xz          xy
       -51.34615   -12.60617   -35.06986     0.85088     2.88317     4.42119
 Feature   EFS_by	VASP
END_CFG

BEGIN_CFG
 Size
    84
 Supercell
        11.601720      0.000000      0.000000
         0.000000      8.809830      0.000000
         0.000000      0.000000     10.766565
 AtomData:  id type       cartes_x      cartes_y      cartes_z           fx          fy          fz
             1    0       1.736830      1.731650      0.134790    -0.842544   -3.524043   -1.751450
             2    0       3.943270      7.202160      1.808200     2.374772   -0.468871   -1.086282
             3    0       7.450680      7.051510      1.798720     0.193344    2.554021    1.552175
             4    0       9.821030      1.620220      0.042880     1.204216    0.178302   -0.710757
             5    0       1.628010      1.678850      3.643060     1.946168    0.457118   -0.064289
             6    0       3.973820      7.150900      5.295800    -0.910650   -0.224568    1.837455
             7    0       7.450680      7.128400      5.401430     1.703251    0.962271    0.051683
             8    0       9.873580      1.754570      3.561770    -0.286384   -2.508762   -0.576376
             9    0       1.871190      1.722410      7.153670    -3.412635   -2.294589    0.821686
            10    0       3.969050      7.136510      9.023310     3.585781    3.879438   -0.815471
            11    0       7.590680      7.013390      8.990900    -2.932958    2.401011    0.976204
            12    0       9.896800      1.667690      7.018010     2.286324    2.718923    2.417291
            13    0       1.699870      6.196050      0.091790     1.398676   -1.771204    0.060609
            14    0       4.161110      2.554670      1.892270    -1.932492    4.502658    0.026028
            15    0       7.409040      2.735690      1.793640     0.899821   -2.864786    0.476854
            16    0       9.906540      6.063100      0.068720    -1.041503   -2.309463   -1.616149
            17    0       1.832890      6.194030      3.640170    -3.851167   -4.955961    0.842937
            18    0       4.088010      2.743130      5.400660     1.960671   -0.600225   -0.089796
            19    0       7.760720      2.905510      5.339490    -2.625523    1.807293   -0.210134
            20    0       9.899520      5.936270      3.486630     1.489206   -0.040974    3.846214
            21    0       1.683410      6.128610      7.328840    -0.458596   -2.077669   -2.319809
            22    0       3.921320      2.842050      8.913030     3.095214   -0.885168    2.286077
            23    0       7.649090      2.613790      9.062470    -3.586993    2.315334   -1.324899
            24    0       9.891620      6.029770      7.229750     0.462347    0.106278   -1.390587
            25    1       1.667020      0.045640     10.637120     0.555253    3.563251    0.896174
            26    1       3.978420      8.808490      1.947650     0.162538   -0.672154   -0.478893
            27    1       7.607400      8.704160      1.923850    -0.616910   -3.136329   -0.550496
            28    1      10.084410      0.048110      0.002940    -0.635167   -0.133387    0.545562
            29    1       1.816640      0.110580      3.707860    -1.225691   -2.137400   -0.396705
            30    1       3.880690      8.730340      5.513590    -0.057983   -0.120533   -1.012651
            31    1       7.569470      8.735070      5.639500     0.030847   -1.620064   -0.919829
            32    1       9.955130      0.093400      3.414810    -0.034597    3.263484    0.894742
            33    1       1.549680      0.125040      7.334350     1.227196    1.621166   -0.135040
            34    1       4.285510      8.795160      8.878320    -1.709418   -3.144826    0.729749
            35    1       7.400540      8.631710      9.083540     1.001795   -1.193799   -0.485362
            36    1      10.143490      0.146980      7.279230    -0.594083   -1.854392   -0.844176
            37    1       1.837690      4.598920      0.241450    -0.478511    0.335934   -0.758147
            38    1       3.941220      4.298920      1.806130     1.536429   -5.380847    0.981154
            39    1       7.203210      4.286870      1.571890     0.190699    1.147536    0.211783
            40    1       9.919960      4.424280     10.686550    -0.279905    1.674554    0.368039
            41    1       1.679430      4.537970      3.693990     0.573891    2.218442   -0.842467
            42    1       4.139960      4.349840      5.590540    -0.094757   -0.150087   -0.909082
            43    1       7.636930      4.599710      5.221680     0.018858   -3.749638    0.696148
            44    1      10.112530      4.344490      3.823770    -0.913237    1.393378   -1.275818
            45    1       1.614400      4.497660      7.057230     0.525116    1.887399    1.689596
            46    1       4.305640      4.381000      8.949910    -0.863342    1.043735   -0.225092
            47    1       7.447170      4.254460      9.051030     1.612055   -1.420054    0.349255
            48    1      10.065660      4.431040      7.459870    -0.619377    1.055661   -0.568871
            49    1       3.527470      2.477760      0.021680     1.059361   -1.101589    0.273623
            50    1       2.164510      6.605620      1.781660    -0.933306    1.180600    0.583716
            51    1       9.554690      6.443140      1.778530    -0.975366   -0.242656    0.912700
            52    1       7.908030      2.019430      0.102170    -0.489278    0.852103   -0.760632
            53    1       3.838240      2.019490      3.640070    -1.010596    1.538601   -0.664802
            54    1       1.987850      6.327730      5.402280     0.762126    2.115770   -0.581920
            55    1       9.688780      6.662880      5.349530    -1.672851   -1.095836    0.179151
            56    1       7.771200      2.039320      3.719670     0.519520    1.614918    0.368571
            57    1       3.764990      2.364050      7.235070    -0.864876   -0.872155   -1.217755
            58    1       1.999950      6.697980      9.097910     0.537190   -0.731986   -1.127322
            59    1       9.442280      6.617490      8.981120     1.471760   -0.607518    0.208459
            60    1       7.835320      2.288420      7.017000     1.787156   -0.095848    1.514509
            61    1       3.808030      6.609750      0.047700    -1.246227    0.926509   -0.159658
            62    1       2.187990      1.908390      1.904870    -0.014356    0.850130   -0.962574
            63    1       9.227190      2.219330      1.954570     2.036709    0.195444   -1.331413
            64    1       8.083100      6.718570      0.098510    -1.214028   -0.295488   -1.347921
            65    1       3.651400      6.456400      3.511850     1.080816    1.337226    0.982665
            66    1       2.147620      1.882280      5.357030     0.623435    1.867800    1.115587
            67    1       9.604320      2.434030      5.322630    -0.078221   -1.174309   -0.087377
            68    1       7.718160      6.576510      3.660070     1.410208    0.359787   -1.307112
            69    1       3.502710      6.856200      7.114750     0.292537   -1.153725    1.485686
            70    1       2.123740      2.333250      8.936710    -1.061616   -0.264350    0.372865
            71    1       9.629950      1.964960      9.027620    -1.285667    0.725396   -0.765022
            72    1       7.962260      6.680220      7.192840    -0.452432   -0.753025   -0.447243
            73    1      11.595780      2.092700      0.095120     0.272742    0.599993    0.576667
            74    1       5.739520      6.634320      1.737010    -0.247964    0.963316    0.228952
            75    1       0.001980      2.296550      3.504540    -0.697430   -0.880166   -0.023689
            76    1       5.670860      6.943810      5.126890     0.749800   -0.686950    0.902477
            77    1       0.066550      2.151030      6.983270    -0.874210    0.185526    0.291453
            78    1       5.730720      6.763510      9.166390     0.300260   -1.136001   -0.968005
            79    1      11.595210      6.435220      0.034830    -0.035518    0.963552    0.023754
            80    1       5.878190      1.980950      2.116060    -1.388839    0.797187   -1.208792
            81    1      11.538030      6.456150      3.349110     0.896258    0.446680    0.291166
            82    1       5.692580      2.183440      5.510830     0.791779    1.273315   -0.556194
            83    1      11.594300      6.558160      7.004190     0.081802    0.146461    1.249054
            84    1       5.933790      2.351750      8.920520    -0.194591   -0.950342    0.619148
 Energy
       -959.333852840000
 PlusStress:  xx          yy          zz          yz          xz          xy
       -62.70633  -103.79419   -47.16472    -0.89509     3.02850     4.12178
 Feature   EFS_by	VASP
END_CFG

BEGIN_CFG
 Size
    84
 Supercell
        11.601720      0.000000      0.000000
         0.000000      8.809830      0.000000
         0.000000      0.000000     10.766565
 AtomData:  id type       cartes_x      cartes_y      cartes_z           fx          fy          fz
             1    0       1.735430      1.700930      0.161530    -1.143849   -0.603414   -1.946469
             2    0       3.946360      7.252550      1.790930     0.859929   -1.607922   -0.322621
             3    0       7.402140      7.050260      1.839830     2.679327   -0.099656    0.762203
             4    0       9.828360      1.572570      0.041790     0.710154    0.273441   -0.507814
             5    0       1.641440      1.632420      3.671770     0.373775    0.105702   -1.231456
             6    0       3.903250      7.181520      5.289870     1.157672   -0.243308    3.134565
             7    0       7.459630      7.149210      5.415380     0.311440    0.155617   -1.366969
             8    0       9.866580      1.753210      3.561140    -0.799460    0.148717   -2.213644
             9    0       1.865010      1.683450      7.183620    -1.658210    1.835258    0.116160
            10    0       4.002930      7.195920      9.035530     0.676305    1.658302   -2.816066
            11    0       7.555520      7.014410      9.034470    -1.282024    0.539244   -0.003857
            12    0       9.966590      1.666110      7.004280    -1.692352    3.168886    1.935739
            13    0       1.723630      6.198850      0.152110     0.030106   -0.876071   -2.467745
            14    0       4.149560      2.522800      1.941520    -1.144266    2.031230   -0.500078
            15    0       7.359370      2.729260      1.806200     2.322719   -1.290348   -0.115886
            16    0       9.889410      6.000460      0.064030    -0.042999   -0.343769   -0.259116
            17    0       1.800540      6.162120      3.682420    -2.729815   -2.380783   -2.022876
            18    0       4.152760      2.760960      5.403840    -1.806571    0.349495   -0.166283
            19    0       7.808140      3.013230      5.321140    -1.515423   -1.326080    0.432876
            20    0       9.939230      5.859230      3.529710     1.182835    2.202185    2.087257
            21    0       1.646000      6.111580      7.351490     1.955320   -0.795792   -1.295597
            22    0       3.914290      2.919170      8.942690     3.613263   -1.482737    0.394503
            23    0       7.663370      2.621260      9.063640    -3.931145    0.142591   -1.179987
            24    0       9.906140      5.987760      7.222500     0.169949    2.811743   -0.762941
            25    1       1.693530      0.101690     10.566550     0.376678    1.675408    0.779725
            26    1       3.922320      0.042060      1.930230     0.554623   -0.837832   -0.496960
            27    1       7.628770      8.623590      1.897890    -0.476194    0.088630   -0.189321
            28    1      10.119140      0.007160     10.757710    -0.736121   -0.285135    0.603060
            29    1       1.777750      0.044830      3.677230    -1.223109   -1.110776   -0.128151
            30    1       3.760800      8.757330      5.443120     0.051072    0.146455   -0.546444